# LAMMPS data file written by OVITO Basic 3.7.10
32 atoms
4 atom types
-15.005 16.613 xlo xhi
-15.423 14.603 ylo yhi
-12.606 15.411 zlo zhi

Masses

1 12.0107  # C
2 15.9994  # O
3 1.00794  # H
4 14.0067  # N

Atoms  # atomic

1 1 1.048 0.238 -0.245
2 2 1.659 -0.755 -0.662
3 1 -0.41 0.146 0.154
4 3 -0.529 -0.569 0.955
5 3 -0.762 1.11 0.49
6 3 -1.005 -0.17 -0.69
7 4 1.662 1.368 -0.15
8 1 3.068 1.444 -0.538
9 1 3.899 0.457 0.247
10 2 4.726 -0.284 -0.298
11 1 3.528 2.899 -0.342
12 3 1.179 2.188 0.189
13 3 3.155 1.17 -1.606
14 3 2.932 3.603 -0.954
15 3 3.436 3.227 0.711
16 3 4.584 3.039 -0.635
17 4 3.741 0.385 1.525
18 1 4.545 -0.569 2.284
19 1 4.348 -1.974 1.766
20 2 5.3 -2.731 1.542
21 1 4.167 -0.423 3.768
22 3 3.072 0.979 1.994
23 3 5.613 -0.317 2.15
24 3 4.353 0.603 4.14
25 3 3.096 -0.642 3.949
26 3 4.751 -1.105 4.411
27 4 3.148 -2.398 1.551
28 1 2.933 -3.746 1.053
29 3 2.359 -1.793 1.728
30 3 3.052 -3.766 -0.02
31 3 3.648 -4.423 1.497
32 3 1.936 -4.076 1.301
