# LAMMPS data file written by OVITO Basic 3.7.10
32 atoms
8 atom types
-2.005 6.613 xlo xhi
-5.423 4.603 ylo yhi
-2.606 5.411 zlo zhi

Masses

1 1.00794  # H
2 1.0
3 1.0
4 1.0
5 1.0
6 12.0107  # C
7 14.0067  # N
8 15.9994  # O

Atoms  # atomic

1 6 1.048 0.238 -0.245
2 8 1.659 -0.755 -0.662
3 6 -0.41 0.146 0.154
4 1 -0.529 -0.569 0.955
5 1 -0.762 1.11 0.49
6 1 -1.005 -0.17 -0.69
7 7 1.662 1.368 -0.15
8 6 3.068 1.444 -0.538
9 6 3.899 0.457 0.247
10 8 4.726 -0.284 -0.298
11 6 3.528 2.899 -0.342
12 1 1.179 2.188 0.189
13 1 3.155 1.17 -1.606
14 1 2.932 3.603 -0.954
15 1 3.436 3.227 0.711
16 1 4.584 3.039 -0.635
17 7 3.741 0.385 1.525
18 6 4.545 -0.569 2.284
19 6 4.348 -1.974 1.766
20 8 5.3 -2.731 1.542
21 6 4.167 -0.423 3.768
22 1 3.072 0.979 1.994
23 1 5.613 -0.317 2.15
24 1 4.353 0.603 4.14
25 1 3.096 -0.642 3.949
26 1 4.751 -1.105 4.411
27 7 3.148 -2.398 1.551
28 6 2.933 -3.746 1.053
29 1 2.359 -1.793 1.728
30 1 3.052 -3.766 -0.02
31 1 3.648 -4.423 1.497
32 1 1.936 -4.076 1.301

