# LAMMPS data file written by OVITO Basic 3.7.10
32 atoms
8 atom types
-2.057 6.6 xlo xhi
-5.473 4.589 ylo yhi
-2.52 5.447 zlo zhi

Masses

1 1.00794  # H
2 1.0
3 1.0
4 1.0
5 1.0
6 12.0107  # C
7 14.0067  # N
8 15.9994  # O

Atoms  # atomic

1 6 0.969 0.163 -0.135
2 8 1.532 -0.884 -0.438
3 6 -0.507 0.232 0.152
4 1 -0.729 -0.388 1.025
5 1 -0.834 1.255 0.359
6 1 -1.057 -0.14 -0.716
7 7 1.65 1.346 0.046
8 6 3.018 1.49 -0.477
9 6 4.074 0.641 0.268
10 8 5.199 0.457 -0.191
11 6 3.446 2.952 -0.406
12 1 1.087 2.189 0.057
13 1 3.003 1.15 -1.52
14 1 2.759 3.589 -0.975
15 1 3.455 3.312 0.629
16 1 4.453 3.09 -0.816
17 7 3.704 0.23 1.53
18 6 4.555 -0.641 2.338
19 6 4.296 -2.15 2.114
20 8 4.966 -3.01 2.687
21 6 4.352 -0.318 3.815
22 1 2.716 0.266 1.747
23 1 5.6 -0.458 2.065
24 1 4.559 0.739 4.015
25 1 3.32 -0.52 4.125
26 1 5.012 -0.92 4.447
27 7 3.225 -2.464 1.305
28 6 2.937 -3.831 0.957
29 1 2.874 -1.749 0.67
30 1 3.656 -4.16 0.202
31 1 3.016 -4.473 1.838
32 1 1.924 -3.881 0.549
