32
 Atoms. Timestep: 20
1 0.972431 0.194228 -0.225903
2 1.50496 -0.855581 -0.677404
1 -0.445499 0.185301 0.185458
3 -0.510659 -0.617906 0.910804
3 -0.848765 1.13539 0.59455
3 -1.06251 -0.159137 -0.699516
4 1.65844 1.34114 -0.0943661
1 3.03618 1.51205 -0.569914
1 3.99036 0.528324 0.158548
2 4.84568 -0.0823425 -0.443906
1 3.55175 2.90987 -0.308167
3 1.24355 2.25528 0.0397344
3 3.21805 1.29965 -1.62709
3 2.91587 3.61615 -0.89343
3 3.41447 3.13893 0.762331
3 4.58182 3.00258 -0.604387
4 3.75287 0.360752 1.4975
1 4.54674 -0.555987 2.32006
1 4.39105 -1.99848 1.81823
2 5.40332 -2.70157 1.74191
1 4.18863 -0.441455 3.7847
3 2.99418 0.883278 1.91033
3 5.60572 -0.39929 2.11079
3 4.3575 0.570069 4.11208
3 3.15949 -0.749609 3.98647
3 4.79915 -1.15177 4.32278
4 3.15618 -2.4731 1.68168
1 2.91042 -3.73428 1.09775
3 2.46101 -1.75255 1.56244
3 2.96546 -3.73701 -4.70749e-05
3 3.65357 -4.45455 1.42497
3 1.90098 -4.1045 1.31987
32
 Atoms. Timestep: 30
1 0.963423 0.174614 -0.226595
2 1.45844 -0.846598 -0.689112
1 -0.454903 0.192685 0.20482
3 -0.52532 -0.650345 0.901472
3 -0.831047 1.07055 0.664538
3 -1.0356 -0.0783416 -0.620355
4 1.66601 1.34813 -0.0815561
1 3.03593 1.52382 -0.581875
1 4.00787 0.549634 0.139507
2 4.85357 -0.071809 -0.460946
1 3.54565 2.91583 -0.266647
3 1.17739 2.22203 -0.0330944
3 3.1609 1.32709 -1.64039
3 2.95166 3.63011 -0.783994
3 3.42061 3.08402 0.786998
3 4.6 3.02225 -0.563042
4 3.76429 0.364492 1.48305
1 4.54635 -0.570497 2.30768
1 4.40453 -2.00963 1.80171
2 5.39107 -2.71243 1.75024
1 4.21513 -0.462035 3.78715
3 2.9512 0.801263 1.85289
3 5.59561 -0.403179 2.08942
3 4.35502 0.578444 4.137
3 3.19966 -0.788866 3.98954
3 4.88613 -1.14317 4.32586
4 3.16472 -2.47019 1.67259
1 2.90644 -3.73491 1.10862
3 2.45833 -1.76221 1.56332
3 2.92339 -3.70821 0.027731
3 3.69728 -4.40885 1.41385
3 1.95063 -4.10546 1.43207
32
 Atoms. Timestep: 40
1 0.968237 0.157117 -0.24201
2 1.41318 -0.828723 -0.69368
1 -0.46465 0.185687 0.237965
3 -0.596258 -0.649529 0.910545
3 -0.80789 1.11669 0.763311
3 -1.12994 -0.0224461 -0.681436
4 1.68392 1.36076 -0.0766667
1 3.05171 1.52086 -0.579397
1 4.00754 0.549171 0.123631
2 4.8664 -0.0547613 -0.477104
1 3.53398 2.92195 -0.225359
3 1.02651 2.1332 -0.0514929
3 3.03978 1.29766 -1.65465
3 2.96219 3.74627 -0.739507
3 3.47816 3.08158 0.873171
3 4.56434 3.03509 -0.499981
4 3.7796 0.371611 1.46601
1 4.54571 -0.58025 2.27177
1 4.43282 -2.01819 1.80863
2 5.38541 -2.72786 1.75491
1 4.24629 -0.481412 3.78631
3 2.89095 0.728399 1.83112
3 5.59916 -0.328133 2.13553
3 4.35073 0.514582 4.16164
3 3.21842 -0.808433 3.98744
3 4.9561 -1.08149 4.33172
4 3.15684 -2.4491 1.66398
1 2.90284 -3.75733 1.10899
3 2.43545 -1.77794 1.5276
3 2.866 -3.67116 0.0097376
3 3.72652 -4.39579 1.42765
3 1.964 -4.13244 1.56209
32
 Atoms. Timestep: 50
1 0.960293 0.191901 -0.239603
2 1.39035 -0.841474 -0.711001
1 -0.491681 0.185021 0.262002
3 -0.674492 -0.665962 0.930704
3 -0.720504 1.07578 0.776791
3 -1.116 0.0992761 -0.551749
4 1.68452 1.35667 -0.0704913
1 3.05693 1.52189 -0.569278
1 3.99654 0.526537 0.111176
2 4.88347 -0.0318607 -0.493176
1 3.51632 2.94107 -0.185505
3 1.01671 2.10446 -0.0482592
3 3.02186 1.28711 -1.62054
3 3.0091 3.73967 -0.642125
3 3.51845 3.0669 0.873091
3 4.58392 3.04612 -0.471617
4 3.78715 0.380306 1.45278
1 4.56002 -0.571405 2.23821
1 4.43616 -2.01147 1.82679
2 5.40052 -2.7581 1.75733
1 4.26919 -0.500738 3.77175
3 2.90574 0.655467 1.78921
3 5.59412 -0.266393 2.16275
3 4.35876 0.542751 4.15734
3 3.27502 -0.850476 4.00799
3 5.01241 -1.08605 4.32942
4 3.14563 -2.4296 1.65316
1 2.89596 -3.78026 1.11282
3 2.41881 -1.74106 1.46419
3 2.77129 -3.72409 0.048174
3 3.73235 -4.40141 1.39047
3 2.02579 -4.17081 1.58805
32
 Atoms. Timestep: 60
1 0.941719 0.212755 -0.232849
2 1.37936 -0.852537 -0.728268
1 -0.498745 0.19276 0.294787
3 -0.69396 -0.666713 0.909287
3 -0.696215 1.14519 0.869891
3 -1.23653 0.183904 -0.601404
4 1.66665 1.33926 -0.0617984
1 3.04401 1.53139 -0.548553
1 3.98489 0.495822 0.0988304
2 4.9015 -0.00522547 -0.508515
1 3.52379 2.9478 -0.154463
3 1.15022 2.21142 -0.0073069
3 3.12785 1.32732 -1.62812
3 2.92176 3.78408 -0.62622
3 3.49569 3.04748 0.955836
3 4.53856 3.04631 -0.460883
4 3.79386 0.381844 1.44325
1 4.58708 -0.547017 2.22762
1 4.43574 -2.01774 1.83565
2 5.41044 -2.78319 1.76311
1 4.29172 -0.505059 3.75029
3 2.85182 0.635587 1.77982
3 5.63299 -0.270693 2.10181
3 4.35987 0.50317 4.07724
3 3.31049 -0.923713 4.03263
3 5.02371 -1.11221 4.25673
4 3.13734 -2.42092 1.63637
1 2.89178 -3.78689 1.12722
3 2.478 -1.72356 1.3929
3 2.67708 -3.81698 0.0396299
3 3.76679 -4.41283 1.31642
3 1.99926 -4.24889 1.61022
32
 Atoms. Timestep: 70
1 0.914253 0.177715 -0.238779
2 1.36824 -0.833086 -0.731844
1 -0.510409 0.233411 0.311835
3 -0.672657 -0.694709 0.887859
3 -0.691406 1.06967 0.922446
3 -1.18028 0.245645 -0.46466
4 1.651 1.33553 -0.0588626
1 3.02903 1.53359 -0.528223
1 3.97641 0.478288 0.087323
2 4.91781 0.0215701 -0.522642
1 3.52016 2.95082 -0.121977
3 1.26949 2.25118 0.102082
3 3.20154 1.4228 -1.59003
3 2.89408 3.67509 -0.558373
3 3.45792 3.03955 0.936183
3 4.56626 3.07401 -0.482105
4 3.79057 0.374961 1.44194
1 4.61838 -0.531355 2.23147
1 4.4502 -2.04407 1.82668
2 5.39961 -2.79134 1.77575
1 4.3085 -0.507929 3.71728
3 2.89437 0.613195 1.75948
3 5.66167 -0.323029 2.00198
3 4.36992 0.5488 4.07206
3 3.3681 -0.952913 3.98377
3 5.07995 -1.13455 4.18624
4 3.14227 -2.43063 1.61517
1 2.87702 -3.79131 1.14043
3 2.51505 -1.68899 1.28561
3 2.63441 -3.83832 0.0960675
3 3.77805 -4.36884 1.25957
3 2.065 -4.25831 1.64483
32
 Atoms. Timestep: 80
1 0.879794 0.155064 -0.238575
2 1.36164 -0.809694 -0.732808
1 -0.502997 0.263194 0.336529
3 -0.648646 -0.671317 0.83517
3 -0.689631 1.10046 1.06204
3 -1.27394 0.295155 -0.524735
4 1.64817 1.33865 -0.0655978
1 3.02624 1.52458 -0.507035
1 3.9746 0.48445 0.0819591
2 4.9287 0.0467558 -0.533568
1 3.51872 2.92986 -0.0946148
3 1.1863 2.17436 0.266067
3 3.14481 1.49135 -1.5981
3 2.81062 3.67005 -0.572008
3 3.46718 3.06896 1.00892
3 4.49878 3.11187 -0.45179
4 3.79527 0.353248 1.43931
1 4.64098 -0.542935 2.22224
1 4.45534 -2.05779 1.80612
2 5.38851 -2.7995 1.79398
1 4.34015 -0.496101 3.68642
3 2.86765 0.620233 1.80091
3 5.67289 -0.349816 1.94864
3 4.37658 0.479649 4.10546
3 3.35426 -0.957288 3.88935
3 5.11611 -1.08349 4.15066
4 3.15349 -2.44353 1.58962
1 2.86629 -3.79007 1.14918
3 2.5914 -1.73498 1.19286
3 2.58652 -3.78183 0.0798019
3 3.80553 -4.34099 1.25481
3 2.08569 -4.27161 1.78662
32
 Atoms. Timestep: 90
1 0.864571 0.194446 -0.22248
2 1.35969 -0.806267 -0.740787
1 -0.513296 0.290481 0.350717
3 -0.691241 -0.69442 0.835793
3 -0.626788 1.05258 1.07254
3 -1.21359 0.365181 -0.409877
4 1.63509 1.33455 -0.0732707
1 3.02597 1.51735 -0.494115
1 3.98475 0.505824 0.0856686
2 4.93077 0.0713172 -0.53909
1 3.48945 2.90998 -0.0637608
3 1.08814 2.02518 0.418039
3 3.02372 1.47503 -1.57595
3 2.8437 3.60962 -0.52358
3 3.5077 3.0832 0.990321
3 4.51686 3.14414 -0.440068
4 3.79795 0.322127 1.43442
1 4.65235 -0.575295 2.18489
1 4.44401 -2.04731 1.78428
2 5.39157 -2.81889 1.8162
1 4.37178 -0.488969 3.66223
3 2.93949 0.604664 1.82754
3 5.68913 -0.335352 1.9535
3 4.38256 0.514784 4.14827
3 3.40258 -0.921778 3.80317
3 5.13561 -1.06888 4.19433
4 3.1701 -2.45156 1.56418
1 2.85877 -3.79413 1.15649
3 2.60525 -1.73698 1.09213
3 2.51307 -3.75849 0.140465
3 3.78226 -4.34651 1.23956
3 2.16416 -4.22856 1.83794
32
 Atoms. Timestep: 100
1 0.890742 0.233598 -0.216181
2 1.34699 -0.7977 -0.742916
1 -0.516182 0.289856 0.373276
3 -0.750795 -0.639352 0.822948
3 -0.580494 1.10616 1.13518
3 -1.29108 0.496927 -0.443026
4 1.60188 1.32503 -0.069611
1 3.01067 1.51844 -0.483399
1 4.00157 0.529546 0.0983411
2 4.9273 0.0959126 -0.540789
1 3.47018 2.89392 -0.0453794
3 1.16224 1.99476 0.532719
3 2.98275 1.39682 -1.56499
3 2.80211 3.66788 -0.50084
3 3.51405 3.04819 1.05064
3 4.44179 3.08931 -0.408568
4 3.80651 0.285407 1.42056
1 4.66406 -0.607151 2.13582
1 4.45313 -2.04827 1.76664
2 5.39203 -2.83509 1.84145
1 4.40696 -0.478846 3.65214
3 2.95688 0.611815 1.8758
3 5.6937 -0.339075 1.94876
3 4.4006 0.516915 4.03736
3 3.39836 -0.916157 3.82163
3 5.09333 -1.08457 4.22577
4 3.17856 -2.43791 1.53159
1 2.86421 -3.79858 1.16564
3 2.61779 -1.76784 1.05786
3 2.38974 -3.81682 0.171015
3 3.76841 -4.41018 1.17164
3 2.13949 -4.22786 1.88931
32
 Atoms. Timestep: 110
1 0.909092 0.217911 -0.219693
2 1.32683 -0.775448 -0.7383
1 -0.521777 0.306054 0.385912
3 -0.82141 -0.668994 0.842908
3 -0.569724 1.07713 1.12864
3 -1.22441 0.589946 -0.357206
4 1.5857 1.34347 -0.0512932
1 2.97634 1.5181 -0.474575
1 4.00807 0.551322 0.114391
2 4.92675 0.119911 -0.543418
1 3.43823 2.89627 -0.0328913
3 1.31184 2.05729 0.605634
3 3.05342 1.34231 -1.54669
3 2.81091 3.67657 -0.410837
3 3.4657 2.95129 1.04619
3 4.48021 3.02574 -0.428966
4 3.80956 0.252042 1.40555
1 4.68241 -0.628922 2.10548
1 4.48368 -2.07392 1.75239
2 5.38721 -2.84705 1.86884
1 4.42405 -0.484384 3.63736
3 3.01252 0.613466 1.88699
3 5.72046 -0.381802 1.87823
3 4.46465 0.60162 3.88289
3 3.44756 -0.855949 3.88445
3 5.09676 -1.10391 4.23305
4 3.18436 -2.42016 1.49121
1 2.86109 -3.81241 1.17543
3 2.587 -1.73387 1.03286
3 2.31636 -3.885 0.241984
3 3.73597 -4.44137 1.09279
3 2.16936 -4.21461 1.89631
